      -----------------------------------------------------------      
     |                   =====================                   |     
     |                           x T B                           |     
     |                   =====================                   |     
     |                         S. Grimme                         |     
     |          Mulliken Center for Theoretical Chemistry        |     
     |                    University of Bonn                     |     
      -----------------------------------------------------------      

   * xtb version 6.5.1 (579679a) compiled by 'ehlert@majestix' on 2022-07-11

   xtb is free software: you can redistribute it and/or modify it under
   the terms of the GNU Lesser General Public License as published by
   the Free Software Foundation, either version 3 of the License, or
   (at your option) any later version.
   
   xtb is distributed in the hope that it will be useful,
   but WITHOUT ANY WARRANTY; without even the implied warranty of
   MERCHANTABILITY or FITNESS FOR A PARTICULAR PURPOSE.  See the
   GNU Lesser General Public License for more details.
   
   Cite this work as:
   * C. Bannwarth, E. Caldeweyher, S. Ehlert, A. Hansen, P. Pracht,
     J. Seibert, S. Spicher, S. Grimme, WIREs Comput. Mol. Sci., 2020, 11,
     e01493. DOI: 10.1002/wcms.1493
   
   for GFN2-xTB:
   * C. Bannwarth, S. Ehlert and S. Grimme., J. Chem. Theory Comput., 2019,
     15, 1652-1671. DOI: 10.1021/acs.jctc.8b01176
   for GFN1-xTB:
   * S. Grimme, C. Bannwarth, P. Shushkov, J. Chem. Theory Comput., 2017,
     13, 1989-2009. DOI: 10.1021/acs.jctc.7b00118
   for GFN0-xTB:
   * P. Pracht, E. Caldeweyher, S. Ehlert, S. Grimme, ChemRxiv, 2019, preprint.
     DOI: 10.26434/chemrxiv.8326202.v1
   for GFN-FF:
   * S. Spicher and S. Grimme, Angew. Chem. Int. Ed., 2020, 59, 15665-15673.
     DOI: 10.1002/anie.202004239
   
   for ALPB and GBSA implicit solvation:
   * S. Ehlert, M. Stahn, S. Spicher, S. Grimme, J. Chem. Theory Comput.,
     2021, 17, 4250-4261. DOI: 10.1021/acs.jctc.1c00471
   
   for DFT-D4:
   * E. Caldeweyher, C. Bannwarth and S. Grimme, J. Chem. Phys., 2017,
     147, 034112. DOI: 10.1063/1.4993215
   * E. Caldeweyher, S. Ehlert, A. Hansen, H. Neugebauer, S. Spicher,
     C. Bannwarth and S. Grimme, J. Chem. Phys., 2019, 150, 154122.
     DOI: 10.1063/1.5090222
   * E. Caldeweyher, J.-M. Mewes, S. Ehlert and S. Grimme, Phys. Chem. Chem. Phys.
     2020, 22, 8499-8512. DOI: 10.1039/D0CP00502A
   
   for sTDA-xTB:
   * S. Grimme and C. Bannwarth, J. Chem. Phys., 2016, 145, 054103.
     DOI: 10.1063/1.4959605
   
   in the mass-spec context:
   * V. Asgeirsson, C. Bauer and S. Grimme, Chem. Sci., 2017, 8, 4879.
     DOI: 10.1039/c7sc00601b
   * J. Koopman and S. Grimme, ACS Omega 2019, 4, 12, 15120-15133.
     DOI: 10.1021/acsomega.9b02011
   
   for metadynamics refer to:
   * S. Grimme, J. Chem. Theory Comput., 2019, 155, 2847-2862
     DOI: 10.1021/acs.jctc.9b00143
   
   for SPH calculations refer to:
   * S. Spicher and S. Grimme, J. Chem. Theory Comput., 2021, 17, 1701-1714
     DOI: 10.1021/acs.jctc.0c01306
   
   with help from (in alphabetical order)
   P. Atkinson, C. Bannwarth, F. Bohle, G. Brandenburg, E. Caldeweyher
   M. Checinski, S. Dohm, S. Ehlert, S. Ehrlich, I. Gerasimov, C. Hölzer
   A. Katbashev, J. Koopman, C. Lavigne, S. Lehtola, F. März, M. Müller,
   F. Musil, H. Neugebauer, J. Pisarek, C. Plett, P. Pracht, F. Pultar,
   J. Seibert, P. Shushkov, S. Spicher, M. Stahn, M. Steiner, T. Strunk,
   J. Stückrath, T. Rose, and J. Unsleber
   
 * started run on 2025/10/03 at 20:07:58.546     

           -------------------------------------------------
          |                Calculation Setup                |
           -------------------------------------------------

          program call               : xtb electrophile.xyz --gfn 2 --charge 0 --opt --gbsa water
          coordinate file            : electrophile.xyz
          omp threads                :                    20

   ID    Z sym.   atoms
    1    6 C      1, 2, 4, 6, 8
    2    7 N      3, 5, 7
    3    1 H      9-13

           -------------------------------------------------
          |                 G F N 2 - x T B                 |
           -------------------------------------------------

        Reference                      10.1021/acs.jctc.8b01176
      * Hamiltonian:
        H0-scaling (s, p, d)           1.850000    2.230000    2.230000
        zeta-weighting                 0.500000
      * Dispersion:
        s8                             2.700000
        a1                             0.520000
        a2                             5.000000
        s9                             5.000000
      * Repulsion:
        kExp                           1.500000    1.000000
        rExp                           1.000000
      * Coulomb:
        alpha                          2.000000
        third order                    shell-resolved
        anisotropic                    true
        a3                             3.000000
        a5                             4.000000
        cn-shift                       1.200000
        cn-exp                         4.000000
        max-rad                        5.000000

      * Solvation model:               GBSA
        Solvent                        water
        Parameter file                 internal GFN2-xTB/GBSA
        Dielectric constant                8.0200E+01
        Reference state                gsolv [1 M gas/solution]
        Free energy shift                  1.8574E-03 Eh       1.1656E+00 kcal/mol
        Temperature                        2.9815E+02 K
        Density                            1.0000E+00 kg/L
        Solvent mass                       1.8000E+01 g/mol
        Interaction kernel             Still
        Born radius scaling (c1)           1.5524E+00
        Born radii integrator          GBOBC
        Born offset                        2.4628E-02 a0       4.6540E-02 AA
        H-bond correction              true
        Ion screening                  false
        Surface tension                    1.0000E-05 Eh       1.5569E+01 dyn/cm
        Grid points                               230 per atom

          ...................................................
          :                      SETUP                      :
          :.................................................:
          :  # basis functions                  37          :
          :  # atomic orbitals                  37          :
          :  # shells                           21          :
          :  # electrons                        40          :
          :  max. iterations                   250          :
          :  Hamiltonian                  GFN2-xTB          :
          :  restarted?                      false          :
          :  GBSA solvation                   true          :
          :  PC potential                    false          :
          :  electronic temp.          300.0000000     K    :
          :  accuracy                    1.0000000          :
          :  -> integral cutoff          0.2500000E+02      :
          :  -> integral neglect         0.1000000E-07      :
          :  -> SCF convergence          0.1000000E-05 Eh   :
          :  -> wf. convergence          0.1000000E-03 e    :
          :  Broyden damping             0.4000000          :
          ...................................................

 iter      E             dE          RMSdq      gap      omega  full diag
   1    -22.2491754 -0.222492E+02  0.664E+00    2.48       0.0  T
   2    -22.2688906 -0.197153E-01  0.417E+00    2.70       1.0  T
   3    -22.2394393  0.294513E-01  0.189E+00    2.51       1.0  T
   4    -22.2692394 -0.298000E-01  0.782E-01    2.47       1.0  T
   5    -22.2756047 -0.636528E-02  0.160E-01    2.47       1.0  T
   6    -22.2756944 -0.897622E-04  0.845E-02    2.46       1.0  T
   7    -22.2757193 -0.249051E-04  0.236E-02    2.47       1.2  T
   8    -22.2757200 -0.623650E-06  0.108E-02    2.47       2.6  T
   9    -22.2757202 -0.251736E-06  0.406E-03    2.47       6.8  T
  10    -22.2757203 -0.682175E-07  0.153E-03    2.47      18.1  T
  11    -22.2757203 -0.309693E-08  0.606E-04    2.47      45.7  T
  12    -22.2757203 -0.973351E-09  0.169E-04    2.47     163.7  T

   *** convergence criteria satisfied after 12 iterations ***

         #    Occupation            Energy/Eh            Energy/eV
      -------------------------------------------------------------
         1        2.0000           -0.6961839             -18.9441
       ...           ...                  ...                  ...
        14        2.0000           -0.4924176             -13.3994
        15        2.0000           -0.4853759             -13.2078
        16        2.0000           -0.4493215             -12.2267
        17        2.0000           -0.4446769             -12.1003
        18        2.0000           -0.4165208             -11.3341
        19        2.0000           -0.3878738             -10.5546
        20        2.0000           -0.3774165             -10.2700 (HOMO)
        21                         -0.2865362              -7.7970 (LUMO)
        22                         -0.1889560              -5.1418
        23                         -0.1840718              -5.0088
        24                         -0.1607680              -4.3747
        25                         -0.0898075              -2.4438
       ...                                ...                  ...
        37                          1.3458548              36.6226
      -------------------------------------------------------------
                  HL-Gap            0.0908802 Eh            2.4730 eV
             Fermi-level           -0.3319764 Eh           -9.0335 eV

 SCC (total)                   0 d,  0 h,  0 min,  0.026 sec
 SCC setup                      ...        0 min,  0.003 sec ( 12.219%)
 Dispersion                     ...        0 min,  0.000 sec (  0.939%)
 classical contributions        ...        0 min,  0.001 sec (  2.595%)
 integral evaluation            ...        0 min,  0.004 sec ( 15.812%)
 iterations                     ...        0 min,  0.013 sec ( 51.484%)
 molecular gradient             ...        0 min,  0.004 sec ( 14.481%)
 printout                       ...        0 min,  0.001 sec (  2.315%)

         :::::::::::::::::::::::::::::::::::::::::::::::::::::
         ::                     SUMMARY                     ::
         :::::::::::::::::::::::::::::::::::::::::::::::::::::
         :: total energy             -21.930593181152 Eh    ::
         :: total w/o Gsasa/hb       -21.924610627394 Eh    ::
         :: gradient norm              0.102680719842 Eh/a0 ::
         :: HOMO-LUMO gap              2.472977461027 eV    ::
         ::.................................................::
         :: SCC energy               -22.275720279136 Eh    ::
         :: -> isotropic ES            0.028893519244 Eh    ::
         :: -> anisotropic ES          0.003841355032 Eh    ::
         :: -> anisotropic XC          0.025514441800 Eh    ::
         :: -> dispersion             -0.009715591005 Eh    ::
         :: -> Gsolv                  -0.009252966179 Eh    ::
         ::    -> Gelec               -0.003270412420 Eh    ::
         ::    -> Gsasa               -0.005967720897 Eh    ::
         ::    -> Ghb                 -0.001872275988 Eh    ::
         ::    -> Gshift               0.001857443127 Eh    ::
         :: repulsion energy           0.345127096575 Eh    ::
         :: add. restraining           0.000000000000 Eh    ::
         :: total charge               0.000000000000 e     ::
         :::::::::::::::::::::::::::::::::::::::::::::::::::::

      ----------------------------------------------------------- 
     |                   =====================                   |
     |                        A N C O P T                        |
     |                   =====================                   |
     |               Approximate Normal Coordinate               |
     |                Rational Function Optimizer                |
      ----------------------------------------------------------- 

          ...................................................
          :                      SETUP                      :
          :.................................................:
          :   optimization level            normal          :
          :   max. optcycles                   200          :
          :   ANC micro-cycles                  20          :
          :   degrees of freedom                33          :
          :.................................................:
          :   RF solver                   davidson          :
          :   write xtbopt.log                true          :
          :   linear?                        false          :
          :   energy convergence         0.5000000E-05 Eh   :
          :   grad. convergence          0.1000000E-02 Eh/α :
          :   maximium RF displ.         1.0000000          :
          :   Hlow (freq-cutoff)         0.1000000E-01      :
          :   Hmax (freq-cutoff)         5.0000000          :
          :   S6 in model hess.         20.0000000          :
          ...................................................

generating ANC from model Hessian ...
Using Lindh-Hessian (1995)
 Shifting diagonal of input Hessian by   9.704331320311311E-003
 Lowest  eigenvalues of input Hessian
    0.000000    0.000000    0.000000    0.000000    0.000000    0.000000
    0.010000    0.011490    0.017748    0.031602    0.035873    0.049073
    0.063286    0.075370    0.091817    0.101117    0.105957    0.138463
 Highest eigenvalues
    1.415307    1.466279    1.789295    2.124973    2.197234    2.535722
 

........................................................................
.............................. CYCLE    1 ..............................
........................................................................
   1    -22.2757203 -0.222757E+02  0.705E-05    2.47       0.0  T
   2    -22.2757203 -0.818545E-11  0.364E-05    2.47     762.8  T
   3    -22.2757203 -0.301981E-12  0.269E-05    2.47    1030.7  T
     SCC iter.                  ...        0 min,  0.004 sec
     gradient                   ...        0 min,  0.001 sec
 * total energy  :   -21.9305932 Eh     change       -0.6299672E-10 Eh
   gradient norm :     0.1026795 Eh/α   predicted     0.0000000E+00 (-100.00%)
   displ. norm   :     0.2756804 α      lambda       -0.1438674E-01
   maximum displ.:     0.1629000 α      in ANC's #8, #11, #13, ...

........................................................................
.............................. CYCLE    2 ..............................
........................................................................
   1    -22.3029298 -0.223029E+02  0.392E-01    2.56       0.0  T
   2    -22.3029702 -0.404209E-04  0.316E-01    2.55       1.0  T
   3    -22.3035141 -0.543908E-03  0.162E-01    2.55       1.0  T
   4    -22.3035874 -0.733261E-04  0.472E-02    2.55       1.0  T
   5    -22.3035974 -0.991736E-05  0.101E-02    2.55       2.7  T
   6    -22.3035979 -0.495450E-06  0.508E-03    2.55       5.5  T
   7    -22.3035979 -0.722133E-07  0.206E-03    2.55      13.5  T
   8    -22.3035979 -0.257616E-08  0.456E-04    2.55      60.8  T
   9    -22.3035979 -0.261970E-09  0.282E-04    2.55      98.3  T
     SCC iter.                  ...        0 min,  0.004 sec
     gradient                   ...        0 min,  0.000 sec
 * total energy  :   -21.9412531 Eh     change       -0.1065989E-01 Eh
   gradient norm :     0.0565006 Eh/α   predicted    -0.7740070E-02 ( -27.39%)
   displ. norm   :     0.3085768 α      lambda       -0.7212471E-02
   maximum displ.:     0.1578832 α      in ANC's #8, #1, #11, ...

........................................................................
.............................. CYCLE    3 ..............................
........................................................................
   1    -22.3197881 -0.223198E+02  0.422E-01    2.59       0.0  T
   2    -22.3198265 -0.383641E-04  0.356E-01    2.58       1.0  T
   3    -22.3206129 -0.786437E-03  0.169E-01    2.59       1.0  T
   4    -22.3206643 -0.513585E-04  0.466E-02    2.58       1.0  T
   5    -22.3206733 -0.897519E-05  0.119E-02    2.59       2.3  T
   6    -22.3206741 -0.870862E-06  0.476E-03    2.59       5.8  T
   7    -22.3206742 -0.483292E-07  0.207E-03    2.59      13.4  T
   8    -22.3206742 -0.251503E-08  0.473E-04    2.59      58.6  T
   9    -22.3206742 -0.249557E-09  0.275E-04    2.59     100.7  T
     SCC iter.                  ...        0 min,  0.003 sec
     gradient                   ...        0 min,  0.001 sec
 * total energy  :   -21.9441259 Eh     change       -0.2872869E-02 Eh
   gradient norm :     0.0291045 Eh/α   predicted    -0.3949620E-02 (  37.48%)
   displ. norm   :     0.1742852 α      lambda       -0.1595804E-02
   maximum displ.:     0.1026322 α      in ANC's #3, #1, #5, ...

........................................................................
.............................. CYCLE    4 ..............................
........................................................................
   1    -22.3167174 -0.223167E+02  0.235E-01    2.60       0.0  T
   2    -22.3167183 -0.838202E-06  0.156E-01    2.60       1.0  T
   3    -22.3166409  0.773410E-04  0.116E-01    2.60       1.0  T
   4    -22.3167647 -0.123774E-03  0.800E-03    2.60       3.5  T
   5    -22.3167649 -0.214156E-06  0.364E-03    2.60       7.6  T
   6    -22.3167649 -0.443020E-07  0.175E-03    2.60      15.9  T
   7    -22.3167649 -0.406100E-08  0.318E-04    2.60      87.3  T
   8    -22.3167649 -0.396774E-09  0.120E-04    2.60     232.0  T
     SCC iter.                  ...        0 min,  0.003 sec
     gradient                   ...        0 min,  0.001 sec
 * total energy  :   -21.9449262 Eh     change       -0.8002273E-03 Eh
   gradient norm :     0.0145863 Eh/α   predicted    -0.8221360E-03 (   2.74%)
   displ. norm   :     0.2268639 α      lambda       -0.1022721E-02
   maximum displ.:     0.1743045 α      in ANC's #1, #2, #6, ...

........................................................................
.............................. CYCLE    5 ..............................
........................................................................
   1    -22.3142542 -0.223143E+02  0.269E-01    2.61       0.0  T
   2    -22.3142563 -0.212506E-05  0.168E-01    2.61       1.0  T
   3    -22.3141284  0.127863E-03  0.134E-01    2.61       1.0  T
   4    -22.3142992 -0.170768E-03  0.707E-03    2.61       3.9  T
   5    -22.3142994 -0.205342E-06  0.293E-03    2.61       9.5  T
   6    -22.3142994 -0.160593E-07  0.148E-03    2.61      18.7  T
   7    -22.3142994 -0.414327E-08  0.453E-04    2.61      61.2  T
   8    -22.3142994 -0.109785E-08  0.124E-04    2.61     222.9  T
     SCC iter.                  ...        0 min,  0.003 sec
     gradient                   ...        0 min,  0.001 sec
 * total energy  :   -21.9454103 Eh     change       -0.4841326E-03 Eh
   gradient norm :     0.0133135 Eh/α   predicted    -0.5376791E-03 (  11.06%)
   displ. norm   :     0.1203211 α      lambda       -0.4491632E-03
   maximum displ.:     0.0626545 α      in ANC's #6, #2, #4, ...

........................................................................
.............................. CYCLE    6 ..............................
........................................................................
   1    -22.3158387 -0.223158E+02  0.155E-01    2.62       0.0  T
   2    -22.3158418 -0.310911E-05  0.936E-02    2.62       1.0  T
   3    -22.3158015  0.403435E-04  0.669E-02    2.62       1.0  T
   4    -22.3158488 -0.472937E-04  0.688E-03    2.62       4.0  T
   5    -22.3158491 -0.331810E-06  0.250E-03    2.62      11.1  T
   6    -22.3158491 -0.122709E-07  0.126E-03    2.62      22.1  T
   7    -22.3158491 -0.511896E-08  0.195E-04    2.62     142.3  T
   8    -22.3158491 -0.924025E-10  0.618E-05    2.62     448.9  T
     SCC iter.                  ...        0 min,  0.004 sec
     gradient                   ...        0 min,  0.001 sec
 * total energy  :   -21.9457245 Eh     change       -0.3142139E-03 Eh
   gradient norm :     0.0068516 Eh/α   predicted    -0.2278343E-03 ( -27.49%)
   displ. norm   :     0.1057570 α      lambda       -0.2384113E-03
   maximum displ.:     0.0533405 α      in ANC's #6, #1, #4, ...

........................................................................
.............................. CYCLE    7 ..............................
........................................................................
   1    -22.3187093 -0.223187E+02  0.137E-01    2.63       0.0  T
   2    -22.3187143 -0.498183E-05  0.839E-02    2.62       1.0  T
   3    -22.3186856  0.286405E-04  0.597E-02    2.63       1.0  T
   4    -22.3187208 -0.351389E-04  0.947E-03    2.62       2.9  T
   5    -22.3187215 -0.685350E-06  0.204E-03    2.62      13.6  T
   6    -22.3187215 -0.452941E-08  0.957E-04    2.62      29.0  T
   7    -22.3187215 -0.253805E-08  0.180E-04    2.62     154.2  T
     SCC iter.                  ...        0 min,  0.005 sec
     gradient                   ...        0 min,  0.001 sec
 * total energy  :   -21.9458692 Eh     change       -0.1446556E-03 Eh
   gradient norm :     0.0056978 Eh/α   predicted    -0.1205385E-03 ( -16.67%)
   displ. norm   :     0.0530634 α      lambda       -0.5750154E-04
   maximum displ.:     0.0263101 α      in ANC's #6, #4, #1, ...

........................................................................
.............................. CYCLE    8 ..............................
........................................................................
   1    -22.3193205 -0.223193E+02  0.725E-02    2.63       0.0  T
   2    -22.3193219 -0.135461E-05  0.427E-02    2.62       1.0  T
   3    -22.3193214  0.507337E-06  0.113E-02    2.63       2.5  T
   4    -22.3193221 -0.723770E-06  0.242E-03    2.62      11.5  T
   5    -22.3193221 -0.386867E-07  0.105E-03    2.63      26.4  T
   6    -22.3193221 -0.324525E-08  0.626E-04    2.63      44.3  T
   7    -22.3193221 -0.256856E-08  0.111E-04    2.63     249.3  T
     SCC iter.                  ...        0 min,  0.003 sec
     gradient                   ...        0 min,  0.001 sec
 * total energy  :   -21.9459089 Eh     change       -0.3970204E-04 Eh
   gradient norm :     0.0040974 Eh/α   predicted    -0.2883263E-04 ( -27.38%)
   displ. norm   :     0.0427273 α      lambda       -0.3938023E-04
   maximum displ.:     0.0262782 α      in ANC's #6, #5, #4, ...

........................................................................
.............................. CYCLE    9 ..............................
........................................................................
   1    -22.3196773 -0.223197E+02  0.615E-02    2.63       0.0  T
   2    -22.3196784 -0.111700E-05  0.362E-02    2.63       1.0  T
   3    -22.3196780  0.398206E-06  0.101E-02    2.63       2.8  T
   4    -22.3196786 -0.579284E-06  0.180E-03    2.63      15.4  T
   5    -22.3196786 -0.197997E-07  0.641E-04    2.63      43.3  T
   6    -22.3196786  0.169258E-09  0.367E-04    2.63      75.6  T
     SCC iter.                  ...        0 min,  0.002 sec
     gradient                   ...        0 min,  0.000 sec
 * total energy  :   -21.9459332 Eh     change       -0.2430907E-04 Eh
   gradient norm :     0.0021296 Eh/α   predicted    -0.1972643E-04 ( -18.85%)
   displ. norm   :     0.0211649 α      lambda       -0.1375616E-04
   maximum displ.:     0.0115135 α      in ANC's #3, #2, #6, ...

........................................................................
.............................. CYCLE   10 ..............................
........................................................................
   1    -22.3197485 -0.223197E+02  0.230E-02    2.63       0.0  T
   2    -22.3197486 -0.840093E-07  0.135E-02    2.63       2.1  T
   3    -22.3197484  0.223158E-06  0.491E-03    2.63       5.6  T
   4    -22.3197486 -0.248333E-06  0.114E-03    2.63      24.3  T
   5    -22.3197486 -0.116160E-07  0.369E-04    2.63      75.2  T
   6    -22.3197486 -0.293394E-09  0.174E-04    2.63     159.3  T
     SCC iter.                  ...        0 min,  0.002 sec
     gradient                   ...        0 min,  0.001 sec
 * total energy  :   -21.9459423 Eh     change       -0.9154850E-05 Eh
   gradient norm :     0.0013034 Eh/α   predicted    -0.6880019E-05 ( -24.85%)
   displ. norm   :     0.0350902 α      lambda       -0.8119236E-05
   maximum displ.:     0.0214987 α      in ANC's #3, #2, #6, ...

........................................................................
.............................. CYCLE   11 ..............................
........................................................................
   1    -22.3191518 -0.223192E+02  0.320E-02    2.63       0.0  T
   2    -22.3191519 -0.139534E-06  0.187E-02    2.63       1.5  T
   3    -22.3191513  0.621911E-06  0.816E-03    2.63       3.4  T
   4    -22.3191520 -0.699005E-06  0.172E-03    2.63      16.2  T
   5    -22.3191520 -0.242175E-07  0.623E-04    2.63      44.5  T
   6    -22.3191520 -0.586077E-09  0.188E-04    2.63     147.8  T
     SCC iter.                  ...        0 min,  0.006 sec
     gradient                   ...        0 min,  0.001 sec
 * total energy  :   -21.9459488 Eh     change       -0.6424002E-05 Eh
   gradient norm :     0.0017080 Eh/α   predicted    -0.4060849E-05 ( -36.79%)
   displ. norm   :     0.0280160 α      lambda       -0.4268925E-05
   maximum displ.:     0.0217988 α      in ANC's #2, #3, #1, ...

........................................................................
.............................. CYCLE   12 ..............................
........................................................................
   1    -22.3195814 -0.223196E+02  0.278E-02    2.63       0.0  T
   2    -22.3195815 -0.116829E-06  0.163E-02    2.63       1.7  T
   3    -22.3195813  0.211364E-06  0.510E-03    2.63       5.4  T
   4    -22.3195815 -0.233560E-06  0.145E-03    2.63      19.1  T
   5    -22.3195816 -0.201248E-07  0.523E-04    2.63      53.0  T
   6    -22.3195816 -0.121895E-08  0.187E-04    2.63     148.0  T
     SCC iter.                  ...        0 min,  0.005 sec
     gradient                   ...        0 min,  0.002 sec
 * total energy  :   -21.9459530 Eh     change       -0.4290232E-05 Eh
   gradient norm :     0.0013704 Eh/α   predicted    -0.2133991E-05 ( -50.26%)
   displ. norm   :     0.0401038 α      lambda       -0.5688079E-05
   maximum displ.:     0.0273477 α      in ANC's #2, #3, #6, ...

........................................................................
.............................. CYCLE   13 ..............................
........................................................................
   1    -22.3191909 -0.223192E+02  0.331E-02    2.63       0.0  T
   2    -22.3191912 -0.300164E-06  0.193E-02    2.63       1.4  T
   3    -22.3191911  0.154863E-06  0.523E-03    2.63       5.3  T
   4    -22.3191913 -0.222854E-06  0.154E-03    2.63      18.1  T
   5    -22.3191913 -0.127310E-07  0.845E-04    2.63      32.8  T
   6    -22.3191913 -0.431240E-08  0.288E-04    2.63      96.2  T
     SCC iter.                  ...        0 min,  0.002 sec
     gradient                   ...        0 min,  0.001 sec
 * total energy  :   -21.9459576 Eh     change       -0.4571823E-05 Eh
   gradient norm :     0.0011681 Eh/α   predicted    -0.2845795E-05 ( -37.75%)
   displ. norm   :     0.0295793 α      lambda       -0.2615313E-05
   maximum displ.:     0.0184014 α      in ANC's #2, #3, #6, ...

........................................................................
.............................. CYCLE   14 ..............................
........................................................................
   1    -22.3195880 -0.223196E+02  0.217E-02    2.63       0.0  T
   2    -22.3195881 -0.961437E-07  0.124E-02    2.63       2.2  T
   3    -22.3195881  0.263563E-07  0.264E-03    2.63      10.5  T
   4    -22.3195882 -0.529572E-07  0.969E-04    2.63      28.6  T
   5    -22.3195882 -0.494460E-08  0.523E-04    2.63      53.0  T
     SCC iter.                  ...        0 min,  0.002 sec
     gradient                   ...        0 min,  0.001 sec
 * total energy  :   -21.9459604 Eh     change       -0.2798083E-05 Eh
   gradient norm :     0.0008862 Eh/α   predicted    -0.1308856E-05 ( -53.22%)
   displ. norm   :     0.0417085 α      lambda       -0.2877308E-05
   maximum displ.:     0.0259610 α      in ANC's #3, #2, #6, ...

   *** GEOMETRY OPTIMIZATION CONVERGED AFTER 14 ITERATIONS ***

------------------------------------------------------------------------
 total energy gain   :        -0.0153672 Eh       -9.6431 kcal/mol
 total RMSD          :         0.2647434 a0        0.1401 Å
 total power (kW/mol):        -2.8819048 (step) -479.1771 (real)
------------------------------------------------------------------------

 ANCopt (total)                0 d,  0 h,  0 min,  0.084 sec
 optimizer setup                ...        0 min,  0.001 sec (  1.482%)
 model hessian                  ...        0 min,  0.006 sec (  6.817%)
 ANC generation                 ...        0 min,  0.000 sec (  0.387%)
 coordinate transformation      ...        0 min,  0.000 sec (  0.099%)
 single point calculation       ...        0 min,  0.070 sec ( 82.684%)
 optimization log               ...        0 min,  0.001 sec (  0.872%)
 hessian update                 ...        0 min,  0.000 sec (  0.463%)
 rational function              ...        0 min,  0.004 sec (  4.668%)

================
 final structure:
================
13
 xtb: 6.5.1 (579679a)
C            2.93437206315511       -0.21013649853722       -0.29544714223156
C            1.75209887975556       -0.04041933647641       -0.18504794416670
N            0.42965186408935        0.10819378270934       -0.05387659773333
C           -0.16346326852353        1.30935543667435        0.03420570737626
N           -1.42921339710308        1.50156228477896        0.18248087717228
C           -2.19301797057822        0.35449041761789        0.26515436059460
N           -1.79501220873126       -0.84574007741149        0.19164161565432
C           -0.40467453132614       -1.11441615572000       -0.00482026770989
H            3.96997596912641       -0.33427463599572       -0.39305093887457
H            0.48694835065193        2.17494228116482       -0.02175624657147
H           -3.25117642035474        0.52750115099905        0.41230679761149
H           -0.05223837051733       -1.75862236438873        0.81471434332257
H           -0.28425195964399       -1.67243628541487       -0.94650556444401
 
 Bond Distances (Angstroems)
 ---------------------------
C1-C2=1.1995         C1-H9=1.0476         C2-C1=1.1995         C2-N3=1.3372         N3-C2=1.3372         N3-C4=1.3425         
N3-C8=1.4810         C4-N3=1.3425         C4-N5=1.2888         C4-H10=1.0842        N5-C4=1.2888         N5-C6=1.3806         
C6-N5=1.3806         C6-N7=1.2666         C6-H11=1.0823        N7-C6=1.2666         N7-C8=1.4296         C8-N3=1.4810         
C8-N7=1.4296         C8-H12=1.1004        C8-H13=1.1012        H9-C1=1.0476         H10-C4=1.0842        H11-C6=1.0823        
H12-C8=1.1004        H13-C8=1.1012        
 C  H  Rav=1.0831 sigma=0.0194  Rmin=1.0476  Rmax=1.1012     5
 C  C  Rav=1.1995 sigma=0.0000  Rmin=1.1995  Rmax=1.1995     1
 N  C  Rav=1.3609 sigma=0.0702  Rmin=1.2666  Rmax=1.4810     7
 
 selected bond angles (degree)
 --------------------
H9-C1-C2=178.67                N3-C2-C1=178.22                C4-N3-C2=122.87                C8-N3-C2=117.95                
C8-N3-C4=119.18                N5-C4-N3=125.09                H10-C4-N3=116.48               H10-C4-N5=118.43               
C6-N5-C4=115.23                N7-C6-N5=127.59                H11-C6-N5=114.60               H11-C6-N7=117.81               
C8-N7-C6=119.45                N7-C8-N3=113.41                H12-C8-N3=109.12               H12-C8-N7=108.61               
H13-C8-N3=109.17               H13-C8-N7=108.61               H13-C8-H12=107.77              
 
 selected dihedral angles (degree)
 ---------------------------------
N3-C2-C1-H9=188.48            C4-N3-C2-C1=167.97            C8-N3-C2-C1=347.98            N5-C4-N3-C2=181.16            
N5-C4-N3-C8=  1.15            H10-C4-N3-C2=  0.92           H10-C4-N3-C8=180.91           C6-N5-C4-N3=  0.65            
C6-N5-C4-H10=180.90           N7-C6-N5-C4=358.82            H11-C6-N5-C4=178.66           C8-N7-C6-N5=359.72            
C8-N7-C6-H11=179.89           N7-C8-N3-C2=177.58            N7-C8-N3-C4=357.59            H12-C8-N3-C2= 56.37           
H12-C8-N3-C4=236.38           H13-C8-N3-C2=298.82           H13-C8-N3-C4=118.83           N3-C8-N7-C6=  1.99            
H12-C8-N7-C6=123.48           H13-C8-N7-C6=240.43           
           -------------------------------------------------
          |                Final Singlepoint                |
           -------------------------------------------------

          ...................................................
          :                      SETUP                      :
          :.................................................:
          :  # basis functions                  37          :
          :  # atomic orbitals                  37          :
          :  # shells                           21          :
          :  # electrons                        40          :
          :  max. iterations                   250          :
          :  Hamiltonian                  GFN2-xTB          :
          :  restarted?                      false          :
          :  GBSA solvation                   true          :
          :  PC potential                    false          :
          :  electronic temp.          300.0000000     K    :
          :  accuracy                    1.0000000          :
          :  -> integral cutoff          0.2500000E+02      :
          :  -> integral neglect         0.1000000E-07      :
          :  -> SCF convergence          0.1000000E-05 Eh   :
          :  -> wf. convergence          0.1000000E-03 e    :
          :  Broyden damping             0.4000000          :
          ...................................................

 iter      E             dE          RMSdq      gap      omega  full diag
   1    -22.3195882 -0.223196E+02  0.126E-04    2.63       0.0  T
   2    -22.3195882 -0.327027E-10  0.103E-04    2.63     269.7  T
   3    -22.3195882 -0.974332E-10  0.342E-05    2.63     809.8  T

   *** convergence criteria satisfied after 3 iterations ***

         #    Occupation            Energy/Eh            Energy/eV
      -------------------------------------------------------------
         1        2.0000           -0.6976968             -18.9853
       ...           ...                  ...                  ...
        14        2.0000           -0.4964945             -13.5103
        15        2.0000           -0.4878982             -13.2764
        16        2.0000           -0.4431185             -12.0579
        17        2.0000           -0.4394189             -11.9572
        18        2.0000           -0.4134816             -11.2514
        19        2.0000           -0.3816071             -10.3841
        20        2.0000           -0.3768896             -10.2557 (HOMO)
        21                         -0.2801701              -7.6238 (LUMO)
        22                         -0.1848437              -5.0299
        23                         -0.1794383              -4.8828
        24                         -0.1342726              -3.6537
        25                         -0.0326045              -0.8872
       ...                                ...                  ...
        37                          1.4428502              39.2620
      -------------------------------------------------------------
                  HL-Gap            0.0967195 Eh            2.6319 eV
             Fermi-level           -0.3285298 Eh           -8.9398 eV

 SCC (total)                   0 d,  0 h,  0 min,  0.003 sec
 SCC setup                      ...        0 min,  0.000 sec (  2.083%)
 Dispersion                     ...        0 min,  0.001 sec ( 40.827%)
 classical contributions        ...        0 min,  0.000 sec (  0.673%)
 integral evaluation            ...        0 min,  0.000 sec (  7.122%)
 iterations                     ...        0 min,  0.001 sec ( 30.316%)
 molecular gradient             ...        0 min,  0.000 sec ( 15.390%)
 printout                       ...        0 min,  0.000 sec (  3.165%)

         :::::::::::::::::::::::::::::::::::::::::::::::::::::
         ::                     SUMMARY                     ::
         :::::::::::::::::::::::::::::::::::::::::::::::::::::
         :: total energy             -21.945960416393 Eh    ::
         :: total w/o Gsasa/hb       -21.940223191208 Eh    ::
         :: gradient norm              0.000887933095 Eh/a0 ::
         :: HOMO-LUMO gap              2.631871446161 eV    ::
         ::.................................................::
         :: SCC energy               -22.319588172584 Eh    ::
         :: -> isotropic ES            0.028632330033 Eh    ::
         :: -> anisotropic ES          0.004249385666 Eh    ::
         :: -> anisotropic XC          0.023983572480 Eh    ::
         :: -> dispersion             -0.009779719128 Eh    ::
         :: -> Gsolv                  -0.008507057147 Eh    ::
         ::    -> Gelec               -0.002769831962 Eh    ::
         ::    -> Gsasa               -0.005816645947 Eh    ::
         ::    -> Ghb                 -0.001778022365 Eh    ::
         ::    -> Gshift               0.001857443127 Eh    ::
         :: repulsion energy           0.373625777665 Eh    ::
         :: add. restraining           0.000000000000 Eh    ::
         :: total charge              -0.000000000000 e     ::
         :::::::::::::::::::::::::::::::::::::::::::::::::::::

           -------------------------------------------------
          |                Property Printout                |
           -------------------------------------------------

    * Orbital Energies and Occupations

         #    Occupation            Energy/Eh            Energy/eV
      -------------------------------------------------------------
         1        2.0000           -0.6976968             -18.9853
       ...           ...                  ...                  ...
         8        2.0000           -0.5700342             -15.5114
         9        2.0000           -0.5684314             -15.4678
        10        2.0000           -0.5540918             -15.0776
        11        2.0000           -0.5093713             -13.8607
        12        2.0000           -0.5081175             -13.8266
        13        2.0000           -0.5040748             -13.7166
        14        2.0000           -0.4964945             -13.5103
        15        2.0000           -0.4878982             -13.2764
        16        2.0000           -0.4431185             -12.0579
        17        2.0000           -0.4394189             -11.9572
        18        2.0000           -0.4134816             -11.2514
        19        2.0000           -0.3816071             -10.3841
        20        2.0000           -0.3768896             -10.2557 (HOMO)
        21                         -0.2801701              -7.6238 (LUMO)
        22                         -0.1848437              -5.0299
        23                         -0.1794383              -4.8828
        24                         -0.1342726              -3.6537
        25                         -0.0326045              -0.8872
        26                          0.0507552               1.3811
        27                          0.0864950               2.3536
        28                          0.1169361               3.1820
        29                          0.1372916               3.7359
        30                          0.1856591               5.0520
        31                          0.2327301               6.3329
       ...                                ...                  ...
        37                          1.4428502              39.2620
      -------------------------------------------------------------
                  HL-Gap            0.0967195 Eh            2.6319 eV
             Fermi-level           -0.3285298 Eh           -8.9398 eV

     #   Z          covCN         q      C6AA      α(0)
     1   6 C        1.909    -0.120    34.461     9.480
     2   6 C        1.934     0.023    30.501     8.919
     3   7 N        2.734    -0.015    21.538     6.893
     4   6 C        2.872     0.148    24.779     8.160
     5   7 N        1.830    -0.329    29.391     8.034
     6   6 C        2.871     0.161    24.517     8.117
     7   7 N        1.823    -0.292    28.407     7.897
     8   6 C        3.723     0.089    19.214     6.260
     9   1 H        0.928     0.126     1.567     1.958
    10   1 H        0.925     0.058     2.217     2.328
    11   1 H        0.925     0.042     2.420     2.433
    12   1 H        0.923     0.055     2.257     2.349
    13   1 H        0.923     0.053     2.278     2.360

 Mol. C6AA /au·bohr⁶  :       2336.983412
 Mol. C8AA /au·bohr⁸  :      55528.753713
 Mol. α(0) /au        :         75.187834


Wiberg/Mayer (AO) data.
largest (>0.10) Wiberg bond orders for each atom

 ---------------------------------------------------------------------------
     #   Z sym  total        # sym  WBO       # sym  WBO       # sym  WBO
 ---------------------------------------------------------------------------
     1   6 C    3.961 --     2 C    2.781     9 H    0.962
     2   6 C    3.959 --     1 C    2.781     3 N    1.129
     3   7 N    3.610 --     4 C    1.271     2 C    1.129     8 C    0.919
                             5 N    0.138
     4   6 C    3.965 --     5 N    1.580     3 N    1.271    10 H    0.951
     5   7 N    3.024 --     4 C    1.580     6 C    1.136     3 N    0.138
     6   6 C    3.968 --     7 N    1.786     5 N    1.136    11 H    0.954
     7   7 N    3.074 --     6 C    1.786     8 C    1.047
     8   6 C    3.964 --     7 N    1.047    12 H    0.959    13 H    0.958
                             3 N    0.919
     9   1 H    0.983 --     1 C    0.962
    10   1 H    0.997 --     4 C    0.951
    11   1 H    0.998 --     6 C    0.954
    12   1 H    0.997 --     8 C    0.959
    13   1 H    0.997 --     8 C    0.958
 ---------------------------------------------------------------------------

Topologies differ in total number of bonds
Writing topology from bond orders to xtbtopo.mol

molecular dipole:
                 x           y           z       tot (Debye)
 q only:        1.199      -0.286      -0.143
   full:        1.535      -0.262      -0.185       3.985
molecular quadrupole (traceless):
                xx          xy          yy          xz          yz          zz
 q only:        2.107       0.384      -1.163      -0.281       0.003      -0.943
  q+dip:        4.170      -0.416      -3.659      -0.386       0.046      -0.511
   full:        1.802       0.196      -3.389       0.092      -0.039       1.587

           -------------------------------------------------
          |                Geometry Summary                 |
           -------------------------------------------------

      molecular mass/u    :      107.1134929
   center of mass at/Å    :       -0.1413655       0.1234178       0.0197620
  moments of inertia/u·Å² :        0.8808747E+02   0.3089254E+03   0.3937576E+03
rotational constants/cm⁻¹ :        0.1913738E+00   0.5456861E-01   0.4281220E-01

 * 12 selected distances

     #   Z          #   Z                                           value/Å
     1   6 C        2   6 C                                       1.1994841
     2   6 C        3   7 N                                       1.3372203
     3   7 N        4   6 C                                       1.3425102
     4   6 C        5   7 N                                       1.2888183
     6   6 C        7   7 N                                       1.2666358
     3   7 N        8   6 C                                       1.4809735 (max)
     7   7 N        8   6 C                                       1.4296235
     1   6 C        9   1 H                                       1.0475745 (min)
     4   6 C       10   1 H                                       1.0841623
     6   6 C       11   1 H                                       1.0822597
     8   6 C       12   1 H                                       1.1003863
     8   6 C       13   1 H                                       1.1012082

 * 3 distinct bonds (by element types)

   Z      Z             #   av. dist./Å        max./Å        min./Å
   1 H    6 C           5     1.0831182     1.1012082     1.0475745
   6 C    6 C           1     1.1994841     1.1994841     1.1994841
   6 C    7 N           6     1.3576303     1.4809735     1.2666358


optimized geometry written to: xtbopt.xyz


           -------------------------------------------------
          | TOTAL ENERGY              -21.945960416393 Eh   |
          | GRADIENT NORM               0.000887933095 Eh/α |
          | HOMO-LUMO GAP               2.631871446161 eV   |
           -------------------------------------------------

------------------------------------------------------------------------
 * finished run on 2025/10/03 at 20:07:58.751     
------------------------------------------------------------------------
 total:
 * wall-time:     0 d,  0 h,  0 min,  0.203 sec
 *  cpu-time:     0 d,  0 h,  0 min,  2.963 sec
 * ratio c/w:    14.608 speedup
 SCF:
 * wall-time:     0 d,  0 h,  0 min,  0.027 sec
 *  cpu-time:     0 d,  0 h,  0 min,  0.499 sec
 * ratio c/w:    18.158 speedup
 ANC optimizer:
 * wall-time:     0 d,  0 h,  0 min,  0.088 sec
 *  cpu-time:     0 d,  0 h,  0 min,  1.751 sec
 * ratio c/w:    19.812 speedup

normal termination of xtb
      -----------------------------------------------------------      
     |                   =====================                   |     
     |                           x T B                           |     
     |                   =====================                   |     
     |                         S. Grimme                         |     
     |          Mulliken Center for Theoretical Chemistry        |     
     |                    University of Bonn                     |     
      -----------------------------------------------------------      

   * xtb version 6.5.1 (579679a) compiled by 'ehlert@majestix' on 2022-07-11

   xtb is free software: you can redistribute it and/or modify it under
   the terms of the GNU Lesser General Public License as published by
   the Free Software Foundation, either version 3 of the License, or
   (at your option) any later version.
   
   xtb is distributed in the hope that it will be useful,
   but WITHOUT ANY WARRANTY; without even the implied warranty of
   MERCHANTABILITY or FITNESS FOR A PARTICULAR PURPOSE.  See the
   GNU Lesser General Public License for more details.
   
   Cite this work as:
   * C. Bannwarth, E. Caldeweyher, S. Ehlert, A. Hansen, P. Pracht,
     J. Seibert, S. Spicher, S. Grimme, WIREs Comput. Mol. Sci., 2020, 11,
     e01493. DOI: 10.1002/wcms.1493
   
   for GFN2-xTB:
   * C. Bannwarth, S. Ehlert and S. Grimme., J. Chem. Theory Comput., 2019,
     15, 1652-1671. DOI: 10.1021/acs.jctc.8b01176
   for GFN1-xTB:
   * S. Grimme, C. Bannwarth, P. Shushkov, J. Chem. Theory Comput., 2017,
     13, 1989-2009. DOI: 10.1021/acs.jctc.7b00118
   for GFN0-xTB:
   * P. Pracht, E. Caldeweyher, S. Ehlert, S. Grimme, ChemRxiv, 2019, preprint.
     DOI: 10.26434/chemrxiv.8326202.v1
   for GFN-FF:
   * S. Spicher and S. Grimme, Angew. Chem. Int. Ed., 2020, 59, 15665-15673.
     DOI: 10.1002/anie.202004239
   
   for ALPB and GBSA implicit solvation:
   * S. Ehlert, M. Stahn, S. Spicher, S. Grimme, J. Chem. Theory Comput.,
     2021, 17, 4250-4261. DOI: 10.1021/acs.jctc.1c00471
   
   for DFT-D4:
   * E. Caldeweyher, C. Bannwarth and S. Grimme, J. Chem. Phys., 2017,
     147, 034112. DOI: 10.1063/1.4993215
   * E. Caldeweyher, S. Ehlert, A. Hansen, H. Neugebauer, S. Spicher,
     C. Bannwarth and S. Grimme, J. Chem. Phys., 2019, 150, 154122.
     DOI: 10.1063/1.5090222
   * E. Caldeweyher, J.-M. Mewes, S. Ehlert and S. Grimme, Phys. Chem. Chem. Phys.
     2020, 22, 8499-8512. DOI: 10.1039/D0CP00502A
   
   for sTDA-xTB:
   * S. Grimme and C. Bannwarth, J. Chem. Phys., 2016, 145, 054103.
     DOI: 10.1063/1.4959605
   
   in the mass-spec context:
   * V. Asgeirsson, C. Bauer and S. Grimme, Chem. Sci., 2017, 8, 4879.
     DOI: 10.1039/c7sc00601b
   * J. Koopman and S. Grimme, ACS Omega 2019, 4, 12, 15120-15133.
     DOI: 10.1021/acsomega.9b02011
   
   for metadynamics refer to:
   * S. Grimme, J. Chem. Theory Comput., 2019, 155, 2847-2862
     DOI: 10.1021/acs.jctc.9b00143
   
   for SPH calculations refer to:
   * S. Spicher and S. Grimme, J. Chem. Theory Comput., 2021, 17, 1701-1714
     DOI: 10.1021/acs.jctc.0c01306
   
   with help from (in alphabetical order)
   P. Atkinson, C. Bannwarth, F. Bohle, G. Brandenburg, E. Caldeweyher
   M. Checinski, S. Dohm, S. Ehlert, S. Ehrlich, I. Gerasimov, C. Hölzer
   A. Katbashev, J. Koopman, C. Lavigne, S. Lehtola, F. März, M. Müller,
   F. Musil, H. Neugebauer, J. Pisarek, C. Plett, P. Pracht, F. Pultar,
   J. Seibert, P. Shushkov, S. Spicher, M. Stahn, M. Steiner, T. Strunk,
   J. Stückrath, T. Rose, and J. Unsleber
   
 * started run on 2025/10/03 at 20:07:58.889     

           -------------------------------------------------
          |                Calculation Setup                |
           -------------------------------------------------

          program call               : xtb nuc.xyz --gfn 2 --charge 0 --opt --gbsa water
          coordinate file            : nuc.xyz
          omp threads                :                    20

   ID    Z sym.   atoms
    1    6 C      1
    2   16 S      2
    3    1 H      3-6

           -------------------------------------------------
          |                 G F N 2 - x T B                 |
           -------------------------------------------------

        Reference                      10.1021/acs.jctc.8b01176
      * Hamiltonian:
        H0-scaling (s, p, d)           1.850000    2.230000    2.230000
        zeta-weighting                 0.500000
      * Dispersion:
        s8                             2.700000
        a1                             0.520000
        a2                             5.000000
        s9                             5.000000
      * Repulsion:
        kExp                           1.500000    1.000000
        rExp                           1.000000
      * Coulomb:
        alpha                          2.000000
        third order                    shell-resolved
        anisotropic                    true
        a3                             3.000000
        a5                             4.000000
        cn-shift                       1.200000
        cn-exp                         4.000000
        max-rad                        5.000000

      * Solvation model:               GBSA
        Solvent                        water
        Parameter file                 internal GFN2-xTB/GBSA
        Dielectric constant                8.0200E+01
        Reference state                gsolv [1 M gas/solution]
        Free energy shift                  1.8574E-03 Eh       1.1656E+00 kcal/mol
        Temperature                        2.9815E+02 K
        Density                            1.0000E+00 kg/L
        Solvent mass                       1.8000E+01 g/mol
        Interaction kernel             Still
        Born radius scaling (c1)           1.5524E+00
        Born radii integrator          GBOBC
        Born offset                        2.4628E-02 a0       4.6540E-02 AA
        H-bond correction              true
        Ion screening                  false
        Surface tension                    1.0000E-05 Eh       1.5569E+01 dyn/cm
        Grid points                               230 per atom

          ...................................................
          :                      SETUP                      :
          :.................................................:
          :  # basis functions                  18          :
          :  # atomic orbitals                  17          :
          :  # shells                            9          :
          :  # electrons                        14          :
          :  max. iterations                   250          :
          :  Hamiltonian                  GFN2-xTB          :
          :  restarted?                      false          :
          :  GBSA solvation                   true          :
          :  PC potential                    false          :
          :  electronic temp.          300.0000000     K    :
          :  accuracy                    1.0000000          :
          :  -> integral cutoff          0.2500000E+02      :
          :  -> integral neglect         0.1000000E-07      :
          :  -> SCF convergence          0.1000000E-05 Eh   :
          :  -> wf. convergence          0.1000000E-03 e    :
          :  Broyden damping             0.4000000          :
          ...................................................

 iter      E             dE          RMSdq      gap      omega  full diag
   1     -7.4664612 -0.746646E+01  0.473E+00    5.40       0.0  T
   2     -7.4793394 -0.128782E-01  0.266E+00    4.94       1.0  T
   3     -7.4799299 -0.590432E-03  0.756E-01    4.74       1.0  T
   4     -7.4801403 -0.210453E-03  0.351E-01    4.67       1.0  T
   5     -7.4801480 -0.770545E-05  0.580E-02    4.66       1.0  T
   6     -7.4801478  0.199212E-06  0.224E-02    4.66       1.8  T
   7     -7.4801488 -0.945590E-06  0.764E-03    4.66       5.3  T
   8     -7.4801488 -0.148860E-07  0.180E-03    4.66      22.7  T
   9     -7.4801488 -0.879616E-09  0.824E-04    4.66      49.6  T
  10     -7.4801488 -0.166343E-08  0.179E-04    4.66     227.6  T

   *** convergence criteria satisfied after 10 iterations ***

         #    Occupation            Energy/Eh            Energy/eV
      -------------------------------------------------------------
         1        2.0000           -0.7120826             -19.3768
         2        2.0000           -0.6021427             -16.3851
         3        2.0000           -0.5120750             -13.9343
         4        2.0000           -0.4977031             -13.5432
         5        2.0000           -0.4811675             -13.0932
         6        2.0000           -0.4550796             -12.3833
         7        2.0000           -0.3693601             -10.0508 (HOMO)
         8                         -0.1980357              -5.3888 (LUMO)
         9                         -0.1182396              -3.2175
        10                         -0.0116141              -0.3160
        11                         -0.0112494              -0.3061
        12                          0.0085891               0.2337
       ...                                ...                  ...
        17                          0.5227160              14.2238
      -------------------------------------------------------------
                  HL-Gap            0.1713244 Eh            4.6620 eV
             Fermi-level           -0.2836979 Eh           -7.7198 eV

 SCC (total)                   0 d,  0 h,  0 min,  0.004 sec
 SCC setup                      ...        0 min,  0.002 sec ( 47.612%)
 Dispersion                     ...        0 min,  0.000 sec (  0.883%)
 classical contributions        ...        0 min,  0.001 sec ( 14.612%)
 integral evaluation            ...        0 min,  0.000 sec (  4.319%)
 iterations                     ...        0 min,  0.001 sec ( 23.683%)
 molecular gradient             ...        0 min,  0.000 sec (  5.763%)
 printout                       ...        0 min,  0.000 sec (  2.770%)

         :::::::::::::::::::::::::::::::::::::::::::::::::::::
         ::                     SUMMARY                     ::
         :::::::::::::::::::::::::::::::::::::::::::::::::::::
         :: total energy              -7.413706886845 Eh    ::
         :: total w/o Gsasa/hb        -7.412357664319 Eh    ::
         :: gradient norm              0.020229864520 Eh/a0 ::
         :: HOMO-LUMO gap              4.661973206329 eV    ::
         ::.................................................::
         :: SCC energy                -7.480148777563 Eh    ::
         :: -> isotropic ES            0.006551042753 Eh    ::
         :: -> anisotropic ES          0.001075555350 Eh    ::
         :: -> anisotropic XC          0.005737301677 Eh    ::
         :: -> dispersion             -0.001755987697 Eh    ::
         :: -> Gsolv                  -0.002882116272 Eh    ::
         ::    -> Gelec               -0.001532893746 Eh    ::
         ::    -> Gsasa               -0.001875438051 Eh    ::
         ::    -> Ghb                 -0.001331227601 Eh    ::
         ::    -> Gshift               0.001857443127 Eh    ::
         :: repulsion energy           0.066441812175 Eh    ::
         :: add. restraining           0.000000000000 Eh    ::
         :: total charge              -0.000000000000 e     ::
         :::::::::::::::::::::::::::::::::::::::::::::::::::::

      ----------------------------------------------------------- 
     |                   =====================                   |
     |                        A N C O P T                        |
     |                   =====================                   |
     |               Approximate Normal Coordinate               |
     |                Rational Function Optimizer                |
      ----------------------------------------------------------- 

          ...................................................
          :                      SETUP                      :
          :.................................................:
          :   optimization level            normal          :
          :   max. optcycles                   200          :
          :   ANC micro-cycles                  20          :
          :   degrees of freedom                12          :
          :.................................................:
          :   RF solver                   davidson          :
          :   write xtbopt.log                true          :
          :   linear?                        false          :
          :   energy convergence         0.5000000E-05 Eh   :
          :   grad. convergence          0.1000000E-02 Eh/α :
          :   maximium RF displ.         1.0000000          :
          :   Hlow (freq-cutoff)         0.1000000E-01      :
          :   Hmax (freq-cutoff)         5.0000000          :
          :   S6 in model hess.         20.0000000          :
          ...................................................

generating ANC from model Hessian ...
Using Lindh-Hessian (1995)
 Shifting diagonal of input Hessian by   4.866758638967673E-004
 Lowest  eigenvalues of input Hessian
    0.000000    0.000000    0.000000    0.000000    0.000000    0.000000
    0.010000    0.024552    0.061022    0.066972    0.117042    0.117395
    0.132356    0.412394    0.804536    1.065880    1.072985    1.083617
 Highest eigenvalues
    0.132356    0.412394    0.804536    1.065880    1.072985    1.083617
 

........................................................................
.............................. CYCLE    1 ..............................
........................................................................
   1     -7.4801488 -0.748015E+01  0.395E-05    4.66       0.0  T
   2     -7.4801488 -0.111022E-12  0.236E-05    4.66    1733.5  T
   3     -7.4801488 -0.603961E-13  0.649E-06    4.66    6287.1  T
     SCC iter.                  ...        0 min,  0.000 sec
     gradient                   ...        0 min,  0.000 sec
 * total energy  :    -7.4137069 Eh     change       -0.2926459E-10 Eh
   gradient norm :     0.0202300 Eh/α   predicted     0.0000000E+00 (-100.00%)
   displ. norm   :     0.0861616 α      lambda       -0.8542927E-03
   maximum displ.:     0.0776986 α      in ANC's #3, #6, #10, ...

........................................................................
.............................. CYCLE    2 ..............................
........................................................................
   1     -7.4824690 -0.748247E+01  0.218E-01    4.63       0.0  T
   2     -7.4824720 -0.301654E-05  0.119E-01    4.63       1.0  T
   3     -7.4824726 -0.604327E-06  0.264E-02    4.62       1.5  T
   4     -7.4824727 -0.129594E-06  0.130E-02    4.62       3.1  T
   5     -7.4824728 -0.338130E-07  0.388E-03    4.62      10.5  T
   6     -7.4824728 -0.252973E-08  0.420E-04    4.62      97.1  T
   7     -7.4824728 -0.479847E-10  0.229E-04    4.62     178.3  T
     SCC iter.                  ...        0 min,  0.003 sec
     gradient                   ...        0 min,  0.000 sec
 * total energy  :    -7.4141975 Eh     change       -0.4905662E-03 Eh
   gradient norm :     0.0099641 Eh/α   predicted    -0.4303176E-03 ( -12.28%)
   displ. norm   :     0.0387810 α      lambda       -0.1756961E-03
   maximum displ.:     0.0344509 α      in ANC's #2, #10, #7, ...

........................................................................
.............................. CYCLE    3 ..............................
........................................................................
   1     -7.4836815 -0.748368E+01  0.667E-02    4.64       0.0  T
   2     -7.4836819 -0.333506E-06  0.379E-02    4.64       1.1  T
   3     -7.4836820 -0.947701E-07  0.677E-03    4.64       6.0  T
   4     -7.4836820 -0.793934E-08  0.234E-03    4.64      17.4  T
   5     -7.4836820 -0.229821E-08  0.117E-03    4.64      34.8  T
   6     -7.4836820 -0.396586E-09  0.212E-04    4.64     192.7  T
   7     -7.4836820 -0.706812E-11  0.489E-05    4.64     835.4  T
     SCC iter.                  ...        0 min,  0.014 sec
     gradient                   ...        0 min,  0.000 sec
 * total energy  :    -7.4142951 Eh     change       -0.9765304E-04 Eh
   gradient norm :     0.0030259 Eh/α   predicted    -0.8798053E-04 (  -9.90%)
   displ. norm   :     0.0143070 α      lambda       -0.2307862E-04
   maximum displ.:     0.0124891 α      in ANC's #2, #10, #3, ...

........................................................................
.............................. CYCLE    4 ..............................
........................................................................
   1     -7.4838617 -0.748386E+01  0.245E-02    4.62       0.0  T
   2     -7.4838618 -0.132129E-06  0.163E-02    4.62       2.5  T
   3     -7.4838618 -0.105848E-07  0.427E-03    4.62       9.6  T
   4     -7.4838618 -0.108171E-07  0.168E-03    4.62      24.4  T
   5     -7.4838618 -0.472475E-09  0.416E-04    4.62      98.2  T
   6     -7.4838618 -0.369322E-10  0.793E-05    4.62     514.6  T
     SCC iter.                  ...        0 min,  0.000 sec
     gradient                   ...        0 min,  0.000 sec
 * total energy  :    -7.4143093 Eh     change       -0.1423405E-04 Eh
   gradient norm :     0.0009255 Eh/α   predicted    -0.1154109E-04 ( -18.92%)
   displ. norm   :     0.0088267 α      lambda       -0.3219915E-05
   maximum displ.:     0.0058164 α      in ANC's #2, #3, #8, ...

........................................................................
.............................. CYCLE    5 ..............................
........................................................................
   1     -7.4836351 -0.748364E+01  0.185E-02    4.61       0.0  T
   2     -7.4836351 -0.185161E-07  0.110E-02    4.61       3.7  T
   3     -7.4836351 -0.402041E-08  0.177E-03    4.61      23.1  T
   4     -7.4836351 -0.112461E-08  0.921E-04    4.61      44.3  T
   5     -7.4836351 -0.865956E-10  0.192E-04    4.61     212.6  T
     SCC iter.                  ...        0 min,  0.000 sec
     gradient                   ...        0 min,  0.000 sec
 * total energy  :    -7.4143109 Eh     change       -0.1532853E-05 Eh
   gradient norm :     0.0003647 Eh/α   predicted    -0.1610085E-05 (   5.04%)
   displ. norm   :     0.0027306 α      lambda       -0.3647706E-06
   maximum displ.:     0.0019783 α      in ANC's #2, #3, #8, ...

   *** GEOMETRY OPTIMIZATION CONVERGED AFTER 5 ITERATIONS ***

------------------------------------------------------------------------
 total energy gain   :        -0.0006040 Eh       -0.3790 kcal/mol
 total RMSD          :         0.0365385 a0        0.0193 Å
 total power (kW/mol):        -0.3171531 (step)  -75.0131 (real)
------------------------------------------------------------------------

 ANCopt (total)                0 d,  0 h,  0 min,  0.021 sec
 optimizer setup                ...        0 min,  0.000 sec (  0.648%)
 model hessian                  ...        0 min,  0.000 sec (  1.470%)
 ANC generation                 ...        0 min,  0.000 sec (  0.326%)
 coordinate transformation      ...        0 min,  0.000 sec (  0.067%)
 single point calculation       ...        0 min,  0.020 sec ( 94.888%)
 optimization log               ...        0 min,  0.000 sec (  0.743%)
 hessian update                 ...        0 min,  0.000 sec (  0.109%)
 rational function              ...        0 min,  0.000 sec (  0.754%)

================
 final structure:
================
6
 xtb: 6.5.1 (579679a)
C           -0.50693346988103        0.00425252398688       -0.01054188100874
S            1.15702562622975       -0.59582022402482       -0.46314709133542
H           -0.61276035796828        1.03958908059219       -0.31718746211925
H           -1.21352193775337       -0.61884403878552       -0.54874563600506
H           -0.65128539933975       -0.10553469791529        1.05916806814545
H            1.82747553871267        0.27635635614656        0.28045500232302
 
 Bond Distances (Angstroems)
 ---------------------------
C1-S2=1.8258         C1-H3=1.0850         C1-H4=1.0850         C1-H5=1.0850         S2-C1=1.8258         S2-H6=1.3278         
H3-C1=1.0850         H4-C1=1.0850         H5-C1=1.0850         H6-S2=1.3278         
 C  H  Rav=1.0850 sigma=0.0000  Rmin=1.0850  Rmax=1.0850     3
 S  H  Rav=1.3278 sigma=0.0000  Rmin=1.3278  Rmax=1.3278     1
 S  C  Rav=1.8258 sigma=0.0000  Rmin=1.8258  Rmax=1.8258     1
 
 selected bond angles (degree)
 --------------------
H3-C1-S2=109.42                H4-C1-S2=106.37                H4-C1-H3=110.14                H5-C1-S2=109.41                
H5-C1-H3=111.24                H5-C1-H4=110.14                H6-S2-C1= 96.05                
 
 selected dihedral angles (degree)
 ---------------------------------
H6-S2-C1-H3= 61.02            H6-S2-C1-H4=179.97            H6-S2-C1-H5=298.92            
           -------------------------------------------------
          |                Final Singlepoint                |
           -------------------------------------------------

          ...................................................
          :                      SETUP                      :
          :.................................................:
          :  # basis functions                  18          :
          :  # atomic orbitals                  17          :
          :  # shells                            9          :
          :  # electrons                        14          :
          :  max. iterations                   250          :
          :  Hamiltonian                  GFN2-xTB          :
          :  restarted?                      false          :
          :  GBSA solvation                   true          :
          :  PC potential                    false          :
          :  electronic temp.          300.0000000     K    :
          :  accuracy                    1.0000000          :
          :  -> integral cutoff          0.2500000E+02      :
          :  -> integral neglect         0.1000000E-07      :
          :  -> SCF convergence          0.1000000E-05 Eh   :
          :  -> wf. convergence          0.1000000E-03 e    :
          :  Broyden damping             0.4000000          :
          ...................................................

 iter      E             dE          RMSdq      gap      omega  full diag
   1     -7.4836351 -0.748364E+01  0.406E-05    4.61       0.0  T
   2     -7.4836351 -0.112799E-12  0.263E-05    4.61    1554.2  T
   3     -7.4836351 -0.100364E-12  0.503E-06    4.61    8114.7  T

   *** convergence criteria satisfied after 3 iterations ***

         #    Occupation            Energy/Eh            Energy/eV
      -------------------------------------------------------------
         1        2.0000           -0.7116997             -19.3663
         2        2.0000           -0.6020318             -16.3821
         3        2.0000           -0.5121449             -13.9362
         4        2.0000           -0.4984863             -13.5645
         5        2.0000           -0.4778803             -13.0038
         6        2.0000           -0.4563104             -12.4168
         7        2.0000           -0.3698890             -10.0652 (HOMO)
         8                         -0.2004625              -5.4549 (LUMO)
         9                         -0.1164049              -3.1675
        10                         -0.0106301              -0.2893
        11                         -0.0094625              -0.2575
        12                          0.0086761               0.2361
       ...                                ...                  ...
        17                          0.5366306              14.6025
      -------------------------------------------------------------
                  HL-Gap            0.1694265 Eh            4.6103 eV
             Fermi-level           -0.2851757 Eh           -7.7600 eV

 SCC (total)                   0 d,  0 h,  0 min,  0.001 sec
 SCC setup                      ...        0 min,  0.000 sec (  6.510%)
 Dispersion                     ...        0 min,  0.000 sec (  1.997%)
 classical contributions        ...        0 min,  0.000 sec (  0.839%)
 integral evaluation            ...        0 min,  0.000 sec ( 19.249%)
 iterations                     ...        0 min,  0.000 sec ( 31.310%)
 molecular gradient             ...        0 min,  0.000 sec ( 24.281%)
 printout                       ...        0 min,  0.000 sec ( 14.058%)

         :::::::::::::::::::::::::::::::::::::::::::::::::::::
         ::                     SUMMARY                     ::
         :::::::::::::::::::::::::::::::::::::::::::::::::::::
         :: total energy              -7.414310873000 Eh    ::
         :: total w/o Gsasa/hb        -7.412902707463 Eh    ::
         :: gradient norm              0.000364631181 Eh/a0 ::
         :: HOMO-LUMO gap              4.610330570080 eV    ::
         ::.................................................::
         :: SCC energy                -7.483635086683 Eh    ::
         :: -> isotropic ES            0.006861745920 Eh    ::
         :: -> anisotropic ES          0.000814203144 Eh    ::
         :: -> anisotropic XC          0.005848374340 Eh    ::
         :: -> dispersion             -0.001746627735 Eh    ::
         :: -> Gsolv                  -0.003001869207 Eh    ::
         ::    -> Gelec               -0.001593703670 Eh    ::
         ::    -> Gsasa               -0.001878586048 Eh    ::
         ::    -> Ghb                 -0.001387022615 Eh    ::
         ::    -> Gshift               0.001857443127 Eh    ::
         :: repulsion energy           0.069324133837 Eh    ::
         :: add. restraining           0.000000000000 Eh    ::
         :: total charge              -0.000000000000 e     ::
         :::::::::::::::::::::::::::::::::::::::::::::::::::::

           -------------------------------------------------
          |                Property Printout                |
           -------------------------------------------------

    * Orbital Energies and Occupations

         #    Occupation            Energy/Eh            Energy/eV
      -------------------------------------------------------------
         1        2.0000           -0.7116997             -19.3663
         2        2.0000           -0.6020318             -16.3821
         3        2.0000           -0.5121449             -13.9362
         4        2.0000           -0.4984863             -13.5645
         5        2.0000           -0.4778803             -13.0038
         6        2.0000           -0.4563104             -12.4168
         7        2.0000           -0.3698890             -10.0652 (HOMO)
         8                         -0.2004625              -5.4549 (LUMO)
         9                         -0.1164049              -3.1675
        10                         -0.0106301              -0.2893
        11                         -0.0094625              -0.2575
        12                          0.0086761               0.2361
        13                          0.1319040               3.5893
        14                          0.2118749               5.7654
        15                          0.2337654               6.3611
        16                          0.2358274               6.4172
        17                          0.5366306              14.6025
      -------------------------------------------------------------
                  HL-Gap            0.1694265 Eh            4.6103 eV
             Fermi-level           -0.2851757 Eh           -7.7600 eV

     #   Z          covCN         q      C6AA      α(0)
     1   6 C        3.744    -0.051    21.561     6.624
     2  16 S        1.892    -0.338   155.828    21.010
     3   1 H        0.925     0.066     2.133     2.284
     4   1 H        0.925     0.064     2.158     2.297
     5   1 H        0.925     0.066     2.133     2.284
     6   1 H        0.923     0.194     1.127     1.660

 Mol. C6AA /au·bohr⁶  :        507.754735
 Mol. C8AA /au·bohr⁸  :      17172.548484
 Mol. α(0) /au        :         36.160003


Wiberg/Mayer (AO) data.
largest (>0.10) Wiberg bond orders for each atom

 ---------------------------------------------------------------------------
     #   Z sym  total        # sym  WBO       # sym  WBO       # sym  WBO
 ---------------------------------------------------------------------------
     1   6 C    3.970 --     2 S    1.014     5 H    0.985     3 H    0.985
                             4 H    0.983
     2  16 S    1.996 --     1 C    1.014     6 H    0.953
     3   1 H    0.996 --     1 C    0.985
     4   1 H    0.996 --     1 C    0.983
     5   1 H    0.996 --     1 C    0.985
     6   1 H    0.962 --     2 S    0.953
 ---------------------------------------------------------------------------

Topologies differ in total number of bonds
Writing topology from bond orders to xtbtopo.mol

molecular dipole:
                 x           y           z       tot (Debye)
 q only:       -0.322       0.524       0.427
   full:       -0.513       0.655       0.530       2.508
molecular quadrupole (traceless):
                xx          xy          yy          xz          yz          zz
 q only:        1.117       1.832      -0.696       1.556      -0.459      -0.421
  q+dip:       -0.169       3.138      -0.146       2.579      -0.767       0.315
   full:        0.648       2.975      -0.458       2.493      -0.267      -0.190

           -------------------------------------------------
          |                Geometry Summary                 |
           -------------------------------------------------

      molecular mass/u    :       48.1072863
   center of mass at/Å    :        0.6310039      -0.3836739      -0.3014071
  moments of inertia/u·Å² :        0.4897591E+01   0.3922162E+02   0.4088660E+02
rotational constants/cm⁻¹ :        0.3442025E+01   0.4298046E+00   0.4123021E+00

 * 4 selected distances

     #   Z          #   Z                                           value/Å
     1   6 C        3   1 H                                       1.0849667 (min)
     1   6 C        4   1 H                                       1.0849793
     1   6 C        5   1 H                                       1.0849748
     2  16 S        6   1 H                                       1.3278326 (max)

 * 2 distinct bonds (by element types)

   Z      Z             #   av. dist./Å        max./Å        min./Å
   1 H    6 C           3     1.0849736     1.0849793     1.0849667
   1 H   16 S           1     1.3278326     1.3278326     1.3278326


optimized geometry written to: xtbopt.xyz


           -------------------------------------------------
          | TOTAL ENERGY               -7.414310873000 Eh   |
          | GRADIENT NORM               0.000364631181 Eh/α |
          | HOMO-LUMO GAP               4.610330570080 eV   |
           -------------------------------------------------

------------------------------------------------------------------------
 * finished run on 2025/10/03 at 20:07:58.928     
------------------------------------------------------------------------
 total:
 * wall-time:     0 d,  0 h,  0 min,  0.038 sec
 *  cpu-time:     0 d,  0 h,  0 min,  0.714 sec
 * ratio c/w:    18.573 speedup
 SCF:
 * wall-time:     0 d,  0 h,  0 min,  0.004 sec
 *  cpu-time:     0 d,  0 h,  0 min,  0.086 sec
 * ratio c/w:    19.985 speedup
 ANC optimizer:
 * wall-time:     0 d,  0 h,  0 min,  0.022 sec
 *  cpu-time:     0 d,  0 h,  0 min,  0.446 sec
 * ratio c/w:    19.941 speedup

normal termination of xtb
      -----------------------------------------------------------      
     |                   =====================                   |     
     |                           x T B                           |     
     |                   =====================                   |     
     |                         S. Grimme                         |     
     |          Mulliken Center for Theoretical Chemistry        |     
     |                    University of Bonn                     |     
      -----------------------------------------------------------      

   * xtb version 6.5.1 (579679a) compiled by 'ehlert@majestix' on 2022-07-11

   xtb is free software: you can redistribute it and/or modify it under
   the terms of the GNU Lesser General Public License as published by
   the Free Software Foundation, either version 3 of the License, or
   (at your option) any later version.
   
   xtb is distributed in the hope that it will be useful,
   but WITHOUT ANY WARRANTY; without even the implied warranty of
   MERCHANTABILITY or FITNESS FOR A PARTICULAR PURPOSE.  See the
   GNU Lesser General Public License for more details.
   
   Cite this work as:
   * C. Bannwarth, E. Caldeweyher, S. Ehlert, A. Hansen, P. Pracht,
     J. Seibert, S. Spicher, S. Grimme, WIREs Comput. Mol. Sci., 2020, 11,
     e01493. DOI: 10.1002/wcms.1493
   
   for GFN2-xTB:
   * C. Bannwarth, S. Ehlert and S. Grimme., J. Chem. Theory Comput., 2019,
     15, 1652-1671. DOI: 10.1021/acs.jctc.8b01176
   for GFN1-xTB:
   * S. Grimme, C. Bannwarth, P. Shushkov, J. Chem. Theory Comput., 2017,
     13, 1989-2009. DOI: 10.1021/acs.jctc.7b00118
   for GFN0-xTB:
   * P. Pracht, E. Caldeweyher, S. Ehlert, S. Grimme, ChemRxiv, 2019, preprint.
     DOI: 10.26434/chemrxiv.8326202.v1
   for GFN-FF:
[...]
   maximum displ.:     0.0630078 α      in ANC's #1, #2, #3, ...

........................................................................
.............................. CYCLE   30 ..............................
........................................................................
   1    -28.7801013 -0.287801E+02  0.535E-02    2.23       0.0  T
   2    -28.7801018 -0.450411E-06  0.276E-02    2.23       1.0  T
   3    -28.7801018 -0.522782E-07  0.489E-03    2.23       5.0  T
   4    -28.7801017  0.114701E-06  0.379E-03    2.23       6.4  T
   5    -28.7801019 -0.183863E-06  0.571E-04    2.23      42.5  T
   6    -28.7801019 -0.371378E-08  0.190E-04    2.23     127.9  T
     SCC iter.                  ...        0 min,  0.009 sec
     gradient                   ...        0 min,  0.001 sec
 * total energy  :   -28.3572120 Eh     change       -0.4911157E-05 Eh
   gradient norm :     0.0004449 Eh/α   predicted    -0.2005153E-05 ( -59.17%)
   displ. norm   :     0.0951527 α      lambda       -0.3556291E-05
   maximum displ.:     0.0707704 α      in ANC's #1, #2, #3, ...

   *** GEOMETRY OPTIMIZATION CONVERGED AFTER 30 ITERATIONS ***

------------------------------------------------------------------------
 total energy gain   :        -0.0849753 Eh      -53.3228 kcal/mol
 total RMSD          :         0.6478401 a0        0.3428 Å
 total power (kW/mol):        -7.4367583 (step) -784.7248 (real)
------------------------------------------------------------------------

 ANCopt (total)                0 d,  0 h,  0 min,  0.284 sec
 optimizer setup                ...        0 min,  0.000 sec (  0.043%)
 model hessian                  ...        0 min,  0.003 sec (  0.911%)
 ANC generation                 ...        0 min,  0.001 sec (  0.413%)
 coordinate transformation      ...        0 min,  0.000 sec (  0.062%)
 single point calculation       ...        0 min,  0.270 sec ( 94.958%)
 optimization log               ...        0 min,  0.002 sec (  0.613%)
 hessian update                 ...        0 min,  0.002 sec (  0.576%)
 rational function              ...        0 min,  0.005 sec (  1.874%)

================
 final structure:
================
17
 xtb: 6.5.1 (579679a)
C            1.41448649685232       -0.39581241351291       -1.03995525660591
C            0.29873538296870       -0.39454173875378       -0.57340204343874
N           -0.91551596055439       -0.28556840346137       -0.03239264425467
C           -1.40461313193339       -1.18862125175725        0.83821653668004
N           -2.55376825160287       -1.11609261663990        1.41317084268416
C           -3.30553779585276       -0.00150415852238        1.09513230927187
N           -3.00203323796445        0.92922497748812        0.29219226893017
C           -1.75642793865189        0.87559247322513       -0.40795485851918
H           -0.76358344719361       -2.03221475705741        1.06754829521308
H           -4.25548073079736        0.06291246016506        1.60919874067232
H           -1.20027083658854        1.80232303655352       -0.20468816819482
H           -1.96316036335480        0.83710376507939       -1.48841350521733
C            3.96804419442666        0.25315107080977       -0.52246124703285
S            2.90990646581175       -0.53978241764639       -1.78830247813907
H            3.64179138858753        1.27702697598214       -0.37213849154314
H            4.97801957083811        0.23062087913101       -0.91815604406315
H            3.90940719501049       -0.31381688107841        0.40083974355361
 
 Bond Distances (Angstroems)
 ---------------------------
C1-C2=1.2094         C1-S14=1.6784        C2-C1=1.2094         C2-N3=1.3338         N3-C2=1.3338         N3-C4=1.3464         
N3-C8=1.4821         C4-N3=1.3464         C4-N5=1.2870         C4-H9=1.0840         N5-C4=1.2870         N5-C6=1.3815         
C6-N5=1.3815         C6-N7=1.2661         C6-H10=1.0820        N7-C6=1.2661         N7-C8=1.4299         C8-N3=1.4821         
C8-N7=1.4299         C8-H11=1.0998        C8-H12=1.1007        H9-C4=1.0840         H10-C6=1.0820        H11-C8=1.0998        
H12-C8=1.1007        C13-S14=1.8305       C13-H15=1.0851       C13-H16=1.0850       C13-H17=1.0851       S14-C1=1.6784        
S14-C13=1.8305       H15-C13=1.0851       H16-C13=1.0850       H17-C13=1.0851       
 C  H  Rav=1.0888 sigma=0.0073  Rmin=1.0820  Rmax=1.1007     7
 C  C  Rav=1.2094 sigma=0.0000  Rmin=1.2094  Rmax=1.2094     1
 N  C  Rav=1.3610 sigma=0.0710  Rmin=1.2661  Rmax=1.4821     7
 S  C  Rav=1.7545 sigma=0.0761  Rmin=1.6784  Rmax=1.8305     2
 
 selected bond angles (degree)
 --------------------
S14-C1-C2=173.78               N3-C2-C1=175.19                C4-N3-C2=122.56                C8-N3-C2=118.54                
C8-N3-C4=118.90                N5-C4-N3=125.13                H9-C4-N3=116.36                H9-C4-N5=118.51                
C6-N5-C4=115.37                N7-C6-N5=127.49                H10-C6-N5=114.61               H10-C6-N7=117.90               
C8-N7-C6=119.46                N7-C8-N3=113.55                H11-C8-N3=109.05               H11-C8-N7=108.57               
H12-C8-N3=109.14               H12-C8-N7=108.56               H12-C8-H11=107.81              
 
 selected dihedral angles (degree)
 ---------------------------------
N3-C2-C1-S14=202.67           C4-N3-C2-C1=227.67            C8-N3-C2-C1= 47.74            N5-C4-N3-C2=178.27            
N5-C4-N3-C8=358.20            H9-C4-N3-C2=358.80            H9-C4-N3-C8=178.73            C6-N5-C4-N3=359.27            
C6-N5-C4-H9=178.73            N7-C6-N5-C4=  1.45            H10-C6-N5-C4=181.85           C8-N7-C6-N5=  0.60            
C8-N7-C6-H10=180.18           N7-C8-N3-C2=183.49            N7-C8-N3-C4=  3.55            H11-C8-N3-C2=304.69           
H11-C8-N3-C4=124.75           H12-C8-N3-C2= 62.23           H12-C8-N3-C4=242.29           N3-C8-N7-C6=357.03            
H11-C8-N7-C6=235.55           H12-C8-N7-C6=118.61           
           -------------------------------------------------
          |                Final Singlepoint                |
           -------------------------------------------------

          ...................................................
          :                      SETUP                      :
          :.................................................:
          :  # basis functions                  53          :
          :  # atomic orbitals                  52          :
          :  # shells                           28          :
          :  # electrons                        52          :
          :  max. iterations                   250          :
          :  Hamiltonian                  GFN2-xTB          :
          :  restarted?                      false          :
          :  GBSA solvation                   true          :
          :  PC potential                    false          :
          :  electronic temp.          300.0000000     K    :
          :  accuracy                    1.0000000          :
          :  -> integral cutoff          0.2500000E+02      :
          :  -> integral neglect         0.1000000E-07      :
          :  -> SCF convergence          0.1000000E-05 Eh   :
          :  -> wf. convergence          0.1000000E-03 e    :
          :  Broyden damping             0.4000000          :
          ...................................................

 iter      E             dE          RMSdq      gap      omega  full diag
   1    -28.7801019 -0.287801E+02  0.925E-05    2.23       0.0  T
   2    -28.7801019 -0.119833E-10  0.599E-05    2.23     405.0  T
   3    -28.7801019 -0.486722E-12  0.398E-05    2.23     609.5  T

   *** convergence criteria satisfied after 3 iterations ***

         #    Occupation            Energy/Eh            Energy/eV
      -------------------------------------------------------------
         1        2.0000           -0.7229484             -19.6724
       ...           ...                  ...                  ...
        20        2.0000           -0.4717098             -12.8359
        21        2.0000           -0.4580169             -12.4633
        22        2.0000           -0.4361748             -11.8689
        23        2.0000           -0.4160162             -11.3204
        24        2.0000           -0.3854996             -10.4900
        25        2.0000           -0.3836723             -10.4403
        26        2.0000           -0.3668373              -9.9821 (HOMO)
        27                         -0.2848097              -7.7501 (LUMO)
        28                         -0.2180208              -5.9326
        29                         -0.1899990              -5.1701
        30                         -0.1825476              -4.9674
        31                         -0.1557768              -4.2389
       ...                                ...                  ...
        52                          1.3826565              37.6240
      -------------------------------------------------------------
                  HL-Gap            0.0820275 Eh            2.2321 eV
             Fermi-level           -0.3258235 Eh           -8.8661 eV

 SCC (total)                   0 d,  0 h,  0 min,  0.003 sec
 SCC setup                      ...        0 min,  0.000 sec (  2.494%)
 Dispersion                     ...        0 min,  0.000 sec (  0.953%)
 classical contributions        ...        0 min,  0.000 sec (  5.789%)
 integral evaluation            ...        0 min,  0.000 sec ( 13.941%)
 iterations                     ...        0 min,  0.001 sec ( 36.919%)
 molecular gradient             ...        0 min,  0.001 sec ( 36.684%)
 printout                       ...        0 min,  0.000 sec (  2.839%)

         :::::::::::::::::::::::::::::::::::::::::::::::::::::
         ::                     SUMMARY                     ::
         :::::::::::::::::::::::::::::::::::::::::::::::::::::
         :: total energy             -28.357212000892 Eh    ::
         :: total w/o Gsasa/hb       -28.350796247008 Eh    ::
         :: gradient norm              0.000444550139 Eh/a0 ::
         :: HOMO-LUMO gap              2.232082443381 eV    ::
         ::.................................................::
         :: SCC energy               -28.780101895915 Eh    ::
         :: -> isotropic ES            0.027935320978 Eh    ::
         :: -> anisotropic ES          0.007712591174 Eh    ::
         :: -> anisotropic XC          0.023881198854 Eh    ::
         :: -> dispersion             -0.013665313514 Eh    ::
         :: -> Gsolv                  -0.009357346788 Eh    ::
         ::    -> Gelec               -0.002941592903 Eh    ::
         ::    -> Gsasa               -0.006595541509 Eh    ::
         ::    -> Ghb                 -0.001677655503 Eh    ::
         ::    -> Gshift               0.001857443127 Eh    ::
         :: repulsion energy           0.422918970355 Eh    ::
         :: add. restraining           0.000000000000 Eh    ::
         :: total charge              -0.000000000000 e     ::
         :::::::::::::::::::::::::::::::::::::::::::::::::::::

           -------------------------------------------------
          |                Property Printout                |
           -------------------------------------------------

    * Orbital Energies and Occupations

         #    Occupation            Energy/Eh            Energy/eV
      -------------------------------------------------------------
         1        2.0000           -0.7229484             -19.6724
       ...           ...                  ...                  ...
        14        2.0000           -0.5112462             -13.9117
        15        2.0000           -0.5068407             -13.7918
        16        2.0000           -0.5046149             -13.7313
        17        2.0000           -0.5011173             -13.6361
        18        2.0000           -0.4907403             -13.3537
        19        2.0000           -0.4896910             -13.3252
        20        2.0000           -0.4717098             -12.8359
        21        2.0000           -0.4580169             -12.4633
        22        2.0000           -0.4361748             -11.8689
        23        2.0000           -0.4160162             -11.3204
        24        2.0000           -0.3854996             -10.4900
        25        2.0000           -0.3836723             -10.4403
        26        2.0000           -0.3668373              -9.9821 (HOMO)
        27                         -0.2848097              -7.7501 (LUMO)
        28                         -0.2180208              -5.9326
        29                         -0.1899990              -5.1701
        30                         -0.1825476              -4.9674
        31                         -0.1557768              -4.2389
        32                         -0.1286739              -3.5014
        33                         -0.0200521              -0.5456
        34                          0.0007725               0.0210
        35                          0.0577896               1.5725
        36                          0.0591379               1.6092
        37                          0.0689169               1.8753
       ...                                ...                  ...
        52                          1.3826565              37.6240
      -------------------------------------------------------------
                  HL-Gap            0.0820275 Eh            2.2321 eV
             Fermi-level           -0.3258235 Eh           -8.8661 eV

     #   Z          covCN         q      C6AA      α(0)
     1   6 C        1.957    -0.018    31.555     9.072
     2   6 C        1.943    -0.017    31.546     9.070
     3   7 N        2.734    -0.012    21.488     6.885
     4   6 C        2.872     0.148    24.790     8.162
     5   7 N        1.830    -0.322    29.191     8.006
     6   6 C        2.871     0.160    24.539     8.120
     7   7 N        1.823    -0.287    28.272     7.879
     8   6 C        3.722     0.086    19.253     6.266
     9   1 H        0.925     0.061     2.192     2.316
    10   1 H        0.925     0.046     2.368     2.406
    11   1 H        0.923     0.057     2.230     2.336
    12   1 H        0.923     0.055     2.260     2.351
    13   6 C        3.743    -0.069    21.893     6.675
    14  16 S        1.953    -0.106   145.471    20.300
    15   1 H        0.925     0.071     2.073     2.252
    16   1 H        0.925     0.076     2.020     2.223
    17   1 H        0.925     0.070     2.083     2.257

 Mol. C6AA /au·bohr⁶  :       4602.932173
 Mol. C8AA /au·bohr⁸  :     125548.036690
 Mol. α(0) /au        :        106.575085


Wiberg/Mayer (AO) data.
largest (>0.10) Wiberg bond orders for each atom

 ---------------------------------------------------------------------------
     #   Z sym  total        # sym  WBO       # sym  WBO       # sym  WBO
 ---------------------------------------------------------------------------
     1   6 C    3.953 --     2 C    2.584    14 S    1.155
     2   6 C    3.946 --     1 C    2.584     3 N    1.149    14 S    0.139
     3   7 N    3.614 --     4 C    1.256     2 C    1.149     8 C    0.918
                             5 N    0.133
     4   6 C    3.961 --     5 N    1.593     3 N    1.256     9 H    0.951
     5   7 N    3.020 --     4 C    1.593     6 C    1.131     3 N    0.133
     6   6 C    3.966 --     7 N    1.790     5 N    1.131    10 H    0.954
     7   7 N    3.072 --     6 C    1.790     8 C    1.047
     8   6 C    3.964 --     7 N    1.047    11 H    0.959    12 H    0.958
                             3 N    0.918
     9   1 H    0.996 --     4 C    0.951
    10   1 H    0.998 --     6 C    0.954
    11   1 H    0.996 --     8 C    0.959
    12   1 H    0.997 --     8 C    0.958
    13   6 C    3.960 --    17 H    0.983    15 H    0.983    16 H    0.978
                            14 S    0.976
    14  16 S    2.330 --     1 C    1.155    13 C    0.976     2 C    0.139
    15   1 H    0.995 --    13 C    0.983
    16   1 H    0.993 --    13 C    0.978
    17   1 H    0.995 --    13 C    0.983
 ---------------------------------------------------------------------------

Topologies differ in total number of bonds
Writing topology from bond orders to xtbtopo.mol

molecular dipole:
                 x           y           z       tot (Debye)
 q only:        1.296       0.312      -0.081
   full:        1.613       0.332       0.004       4.186
molecular quadrupole (traceless):
                xx          xy          yy          xz          yz          zz
 q only:        2.653       1.616       0.088       4.918      -0.685      -2.741
  q+dip:        3.144       3.085       0.206       6.384      -0.762      -3.349
   full:        2.123       3.674       0.366       8.227       0.498      -2.489

           -------------------------------------------------
          |                Geometry Summary                 |
           -------------------------------------------------

      molecular mass/u    :      153.2048977
   center of mass at/Å    :       -0.0155820      -0.2106754      -0.2685649
  moments of inertia/u·Å² :        0.1269723E+03   0.1143398E+04   0.1193055E+04
rotational constants/cm⁻¹ :        0.1327662E+00   0.1474345E-01   0.1412980E-01

 * 15 selected distances

     #   Z          #   Z                                           value/Å
     1   6 C        2   6 C                                       1.2093694
     2   6 C        3   7 N                                       1.3337815
     3   7 N        4   6 C                                       1.3463585
     4   6 C        5   7 N                                       1.2870084
     6   6 C        7   7 N                                       1.2661298
     3   7 N        8   6 C                                       1.4820509
     7   7 N        8   6 C                                       1.4299005
     4   6 C        9   1 H                                       1.0840490
     6   6 C       10   1 H                                       1.0820377 (min)
     8   6 C       11   1 H                                       1.0997535
     8   6 C       12   1 H                                       1.1007319
     1   6 C       14  16 S                                       1.6784017 (max)
    13   6 C       15   1 H                                       1.0850622
    13   6 C       16   1 H                                       1.0849574
    13   6 C       17   1 H                                       1.0850695

 * 4 distinct bonds (by element types)

   Z      Z             #   av. dist./Å        max./Å        min./Å
   1 H    6 C           7     1.0888088     1.1007319     1.0820377
   6 C    6 C           1     1.2093694     1.2093694     1.2093694
   6 C    7 N           6     1.3575383     1.4820509     1.2661298
   6 C   16 S           1     1.6784017     1.6784017     1.6784017


optimized geometry written to: xtbopt.xyz


           -------------------------------------------------
          | TOTAL ENERGY              -28.357212000892 Eh   |
          | GRADIENT NORM               0.000444550139 Eh/α |
          | HOMO-LUMO GAP               2.232082443381 eV   |
           -------------------------------------------------

------------------------------------------------------------------------
 * finished run on 2025/10/03 at 20:07:59.257     
------------------------------------------------------------------------
 total:
 * wall-time:     0 d,  0 h,  0 min,  0.321 sec
 *  cpu-time:     0 d,  0 h,  0 min,  6.311 sec
 * ratio c/w:    19.668 speedup
 SCF:
 * wall-time:     0 d,  0 h,  0 min,  0.018 sec
 *  cpu-time:     0 d,  0 h,  0 min,  0.341 sec
 * ratio c/w:    19.404 speedup
 ANC optimizer:
 * wall-time:     0 d,  0 h,  0 min,  0.289 sec
 *  cpu-time:     0 d,  0 h,  0 min,  5.763 sec
 * ratio c/w:    19.972 speedup

normal termination of xtb
