3
 energy: -5.070369819160 gnorm: 0.007328082885 xtb: 6.5.1 (579679a)
O            0.00000000000000        0.00000000000000        0.00000000000000
H            0.75700000000000        0.58600000000000        0.00000000000000
H           -0.75700000000000        0.58600000000000        0.00000000000000
3
 energy: -5.070498092294 gnorm: 0.004160555834 xtb: 6.5.1 (579679a)
O            0.00000000073497        0.00441542833248        0.00000000000000
H            0.76527464487792        0.58379228554928        0.00000000000000
H           -0.76527464561289        0.58379228611823        0.00000000000000
3
 energy: -5.070541591801 gnorm: 0.002026596989 xtb: 6.5.1 (579679a)
O            0.00000000073497        0.00984835417559        0.00000000000000
H            0.77198315729416        0.58107582262773        0.00000000000000
H           -0.77198315802913        0.58107582319668        0.00000000000000
3
 energy: -5.070544134494 gnorm: 0.000716531042 xtb: 6.5.1 (579679a)
O            0.00000000022983        0.01098113510811        0.00000000000000
H            0.77236042376813        0.58050943235699        0.00000000000000
H           -0.77236042399795        0.58050943253490        0.00000000000000
